Title: 3CV_ini.txt
Date: Tue Mar 19 13:31:44 2024
Plotname: SP ct2[1].ct1[1/3].S_Parameters[1/46] <3CV_ini.txt>  VP2GROUND.Vdc=0 V VP1GROUND.Vdc=-9 V  freq=100 MHz
Flags: complex 
No. Variables: 7      
No. Points: 1       
Variables:	0	freq	frequency 
		1	S[1,1]	s-param plot=0 grid=3
		2	S[1,2]	s-param plot=0 grid=3
		3	S[2,1]	s-param plot=0 grid=3
		4	S[2,2]	s-param plot=0 grid=3
		5	PORTZ[1]	none plot=0 grid=3
		6	PORTZ[2]	none plot=0 grid=3
Values:
0	1.000000000000000e+08,0.000000000000000e+00
	9.986371484705412e-01,-5.110833927871236e-02
	3.792754728250491e-04,9.801693625167387e-03
	4.402685251902452e-04,1.137791596879336e-02
	9.996005205589673e-01,-2.621260406697241e-02
	5.000000000000000e+01,0.000000000000000e+00
	5.000000000000000e+01,0.000000000000000e+00

Plotname: SP ct2[1].ct1[1/3].S_Parameters[2/46] <3CV_ini.txt>  VP2GROUND.Vdc=0 V VP1GROUND.Vdc=-8.8 V  freq=100 MHz
Flags: complex 
No. Variables: 7      
No. Points: 1       
Variables:	0	freq	frequency 
		1	S[1,1]	s-param plot=0 grid=3
		2	S[1,2]	s-param plot=0 grid=3
		3	S[2,1]	s-param plot=0 grid=3
		4	S[2,2]	s-param plot=0 grid=3
		5	PORTZ[1]	none plot=0 grid=3
		6	PORTZ[2]	none plot=0 grid=3
Values:
0	1.000000000000000e+08,0.000000000000000e+00
	9.986368700346251e-01,-5.110831994528309e-02
	3.814123949911063e-04,9.850668196684268e-03
	4.405472126410052e-04,1.137789988377847e-02
	9.995989551233193e-01,-2.626160813032063e-02
	5.000000000000000e+01,0.000000000000000e+00
	5.000000000000000e+01,0.000000000000000e+00

Plotname: SP ct2[1].ct1[1/3].S_Parameters[3/46] <3CV_ini.txt>  VP2GROUND.Vdc=0 V VP1GROUND.Vdc=-8.6 V  freq=100 MHz
Flags: complex 
No. Variables: 7      
No. Points: 1       
Variables:	0	freq	frequency 
		1	S[1,1]	s-param plot=0 grid=3
		2	S[1,2]	s-param plot=0 grid=3
		3	S[2,1]	s-param plot=0 grid=3
		4	S[2,2]	s-param plot=0 grid=3
		5	PORTZ[1]	none plot=0 grid=3
		6	PORTZ[2]	none plot=0 grid=3
Values:
0	1.000000000000000e+08,0.000000000000000e+00
	9.986365915999129e-01,-5.110830059822085e-02
	3.835517162510878e-04,9.899642618172428e-03
	4.408258990456016e-04,1.137788378511520e-02
	9.995973872865880e-01,-2.631061207163076e-02
	5.000000000000000e+01,0.000000000000000e+00
	5.000000000000000e+01,0.000000000000000e+00

Plotname: SP ct2[1].ct1[1/3].S_Parameters[4/46] <3CV_ini.txt>  VP2GROUND.Vdc=0 V VP1GROUND.Vdc=-8.4 V  freq=100 MHz
Flags: complex 
No. Variables: 7      
No. Points: 1       
Variables:	0	freq	frequency 
		1	S[1,1]	s-param plot=0 grid=3
		2	S[1,2]	s-param plot=0 grid=3
		3	S[2,1]	s-param plot=0 grid=3
		4	S[2,2]	s-param plot=0 grid=3
		5	PORTZ[1]	none plot=0 grid=3
		6	PORTZ[2]	none plot=0 grid=3
Values:
0	1.000000000000000e+08,0.000000000000000e+00
	9.986363131664080e-01,-5.110828123752578e-02
	3.856934365906360e-04,9.948616889455770e-03
	4.411045844030387e-04,1.137786767280377e-02
	9.995958170488091e-01,-2.635961589072697e-02
	5.000000000000000e+01,0.000000000000000e+00
	5.000000000000000e+01,0.000000000000000e+00

Plotname: SP ct2[1].ct1[1/3].S_Parameters[5/46] <3CV_ini.txt>  VP2GROUND.Vdc=0 V VP1GROUND.Vdc=-8.2 V  freq=100 MHz
Flags: complex 
No. Variables: 7      
No. Points: 1       
Variables:	0	freq	frequency 
		1	S[1,1]	s-param plot=0 grid=3
		2	S[1,2]	s-param plot=0 grid=3
		3	S[2,1]	s-param plot=0 grid=3
		4	S[2,2]	s-param plot=0 grid=3
		5	PORTZ[1]	none plot=0 grid=3
		6	PORTZ[2]	none plot=0 grid=3
Values:
0	1.000000000000000e+08,0.000000000000000e+00
	9.986360347341094e-01,-5.110826186319789e-02
	3.878375559953673e-04,9.997591010358020e-03
	4.413832687123108e-04,1.137785154684420e-02
	9.995942444099832e-01,-2.640861958743256e-02
	5.000000000000000e+01,0.000000000000000e+00
	5.000000000000000e+01,0.000000000000000e+00

Plotname: SP ct2[1].ct1[1/3].S_Parameters[6/46] <3CV_ini.txt>  VP2GROUND.Vdc=0 V VP1GROUND.Vdc=-8 V  freq=100 MHz
Flags: complex 
No. Variables: 7      
No. Points: 1       
Variables:	0	freq	frequency 
		1	S[1,1]	s-param plot=0 grid=3
		2	S[1,2]	s-param plot=0 grid=3
		3	S[2,1]	s-param plot=0 grid=3
		4	S[2,2]	s-param plot=0 grid=3
		5	PORTZ[1]	none plot=0 grid=3
		6	PORTZ[2]	none plot=0 grid=3
Values:
0	1.000000000000000e+08,0.000000000000000e+00
	9.986357563030202e-01,-5.110824247523740e-02
	3.899840744508835e-04,1.004656498070294e-02
	4.416619519724153e-04,1.137783540723660e-02
	9.995926693701205e-01,-2.645762316157106e-02
	5.000000000000000e+01,0.000000000000000e+00
	5.000000000000000e+01,0.000000000000000e+00

Plotname: SP ct2[1].ct1[1/3].S_Parameters[7/46] <3CV_ini.txt>  VP2GROUND.Vdc=0 V VP1GROUND.Vdc=-7.8 V  freq=100 MHz
Flags: complex 
No. Variables: 7      
No. Points: 1       
Variables:	0	freq	frequency 
		1	S[1,1]	s-param plot=0 grid=3
		2	S[1,2]	s-param plot=0 grid=3
		3	S[2,1]	s-param plot=0 grid=3
		4	S[2,2]	s-param plot=0 grid=3
		5	PORTZ[1]	none plot=0 grid=3
		6	PORTZ[2]	none plot=0 grid=3
Values:
0	1.000000000000000e+08,0.000000000000000e+00
	9.986354778731390e-01,-5.110822307364438e-02
	3.921329919427706e-04,1.009553880031433e-02
	4.419406341823512e-04,1.137781925398106e-02
	9.995910919292377e-01,-2.650662661296619e-02
	5.000000000000000e+01,0.000000000000000e+00
	5.000000000000000e+01,0.000000000000000e+00

Plotname: SP ct2[1].ct1[1/3].S_Parameters[8/46] <3CV_ini.txt>  VP2GROUND.Vdc=0 V VP1GROUND.Vdc=-7.6 V  freq=100 MHz
Flags: complex 
No. Variables: 7      
No. Points: 1       
Variables:	0	freq	frequency 
		1	S[1,1]	s-param plot=0 grid=3
		2	S[1,2]	s-param plot=0 grid=3
		3	S[2,1]	s-param plot=0 grid=3
		4	S[2,2]	s-param plot=0 grid=3
		5	PORTZ[1]	none plot=0 grid=3
		6	PORTZ[2]	none plot=0 grid=3
Values:
0	1.000000000000000e+08,0.000000000000000e+00
	9.986351994444682e-01,-5.110820365841889e-02
	3.942843084565977e-04,1.014451246901602e-02
	4.422193153411176e-04,1.137780308707772e-02
	9.995895120873526e-01,-2.655562994144174e-02
	5.000000000000000e+01,0.000000000000000e+00
	5.000000000000000e+01,0.000000000000000e+00

Plotname: SP ct2[1].ct1[1/3].S_Parameters[9/46] <3CV_ini.txt>  VP2GROUND.Vdc=0 V VP1GROUND.Vdc=-7.4 V  freq=100 MHz
Flags: complex 
No. Variables: 7      
No. Points: 1       
Variables:	0	freq	frequency 
		1	S[1,1]	s-param plot=0 grid=3
		2	S[1,2]	s-param plot=0 grid=3
		3	S[2,1]	s-param plot=0 grid=3
		4	S[2,2]	s-param plot=0 grid=3
		5	PORTZ[1]	none plot=0 grid=3
		6	PORTZ[2]	none plot=0 grid=3
Values:
0	1.000000000000000e+08,0.000000000000000e+00
	9.986349210170091e-01,-5.110818422956111e-02
	3.964380239779143e-04,1.019348598663177e-02
	4.424979954477116e-04,1.137778690652666e-02
	9.995879298444728e-01,-2.660463314682112e-02
	5.000000000000000e+01,0.000000000000000e+00
	5.000000000000000e+01,0.000000000000000e+00

Plotname: SP ct2[1].ct1[1/3].S_Parameters[10/46] <3CV_ini.txt>  VP2GROUND.Vdc=0 V VP1GROUND.Vdc=-7.2 V  freq=100 MHz
Flags: complex 
No. Variables: 7      
No. Points: 1       
Variables:	0	freq	frequency 
		1	S[1,1]	s-param plot=0 grid=3
		2	S[1,2]	s-param plot=0 grid=3
		3	S[2,1]	s-param plot=0 grid=3
		4	S[2,2]	s-param plot=0 grid=3
		5	PORTZ[1]	none plot=0 grid=3
		6	PORTZ[2]	none plot=0 grid=3
Values:
0	1.000000000000000e+08,0.000000000000000e+00
	9.986346425907620e-01,-5.110816478707111e-02
	3.985941384922575e-04,1.024245935298544e-02
	4.427766745011357e-04,1.137777071232806e-02
	9.995863452006275e-01,-2.665363622892843e-02
	5.000000000000000e+01,0.000000000000000e+00
	5.000000000000000e+01,0.000000000000000e+00

Plotname: SP ct2[1].ct1[1/3].S_Parameters[11/46] <3CV_ini.txt>  VP2GROUND.Vdc=0 V VP1GROUND.Vdc=-7 V  freq=100 MHz
Flags: complex 
No. Variables: 7      
No. Points: 1       
Variables:	0	freq	frequency 
		1	S[1,1]	s-param plot=0 grid=3
		2	S[1,2]	s-param plot=0 grid=3
		3	S[2,1]	s-param plot=0 grid=3
		4	S[2,2]	s-param plot=0 grid=3
		5	PORTZ[1]	none plot=0 grid=3
		6	PORTZ[2]	none plot=0 grid=3
Values:
0	1.000000000000000e+08,0.000000000000000e+00
	9.986343641657272e-01,-5.110814533094899e-02
	4.007526519851358e-04,1.029143256790069e-02
	4.430553525003785e-04,1.137775450448185e-02
	9.995847581558002e-01,-2.670263918758644e-02
	5.000000000000000e+01,0.000000000000000e+00
	5.000000000000000e+01,0.000000000000000e+00

Plotname: SP ct2[1].ct1[1/3].S_Parameters[12/46] <3CV_ini.txt>  VP2GROUND.Vdc=0 V VP1GROUND.Vdc=-6.8 V  freq=100 MHz
Flags: complex 
No. Variables: 7      
No. Points: 1       
Variables:	0	freq	frequency 
		1	S[1,1]	s-param plot=0 grid=3
		2	S[1,2]	s-param plot=0 grid=3
		3	S[2,1]	s-param plot=0 grid=3
		4	S[2,2]	s-param plot=0 grid=3
		5	PORTZ[1]	none plot=0 grid=3
		6	PORTZ[2]	none plot=0 grid=3
Values:
0	1.000000000000000e+08,0.000000000000000e+00
	9.986340857419078e-01,-5.110812586119493e-02
	4.029135644420503e-04,1.034040563120133e-02
	4.433340294444415e-04,1.137773828298819e-02
	9.995831687100121e-01,-2.675164202261906e-02
	5.000000000000000e+01,0.000000000000000e+00
	5.000000000000000e+01,0.000000000000000e+00

Plotname: SP ct2[1].ct1[1/3].S_Parameters[13/46] <3CV_ini.txt>  VP2GROUND.Vdc=0 V VP1GROUND.Vdc=-6.6 V  freq=100 MHz
Flags: complex 
No. Variables: 7      
No. Points: 1       
Variables:	0	freq	frequency 
		1	S[1,1]	s-param plot=0 grid=3
		2	S[1,2]	s-param plot=0 grid=3
		3	S[2,1]	s-param plot=0 grid=3
		4	S[2,2]	s-param plot=0 grid=3
		5	PORTZ[1]	none plot=0 grid=3
		6	PORTZ[2]	none plot=0 grid=3
Values:
0	1.000000000000000e+08,0.000000000000000e+00
	9.986338073193033e-01,-5.110810637780892e-02
	4.050768758484850e-04,1.038937854271124e-02
	4.436127053323247e-04,1.137772204784722e-02
	9.995815768632859e-01,-2.680064473385012e-02
	5.000000000000000e+01,0.000000000000000e+00
	5.000000000000000e+01,0.000000000000000e+00

Plotname: SP ct2[1].ct1[1/3].S_Parameters[14/46] <3CV_ini.txt>  VP2GROUND.Vdc=0 V VP1GROUND.Vdc=-6.4 V  freq=100 MHz
Flags: complex 
No. Variables: 7      
No. Points: 1       
Variables:	0	freq	frequency 
		1	S[1,1]	s-param plot=0 grid=3
		2	S[1,2]	s-param plot=0 grid=3
		3	S[2,1]	s-param plot=0 grid=3
		4	S[2,2]	s-param plot=0 grid=3
		5	PORTZ[1]	none plot=0 grid=3
		6	PORTZ[2]	none plot=0 grid=3
Values:
0	1.000000000000000e+08,0.000000000000000e+00
	9.986335288979149e-01,-5.110808688079115e-02
	4.072425861899016e-04,1.043835130225416e-02
	4.438913801630235e-04,1.137770579905899e-02
	9.995799826156249e-01,-2.684964732110303e-02
	5.000000000000000e+01,0.000000000000000e+00
	5.000000000000000e+01,0.000000000000000e+00

Plotname: SP ct2[1].ct1[1/3].S_Parameters[15/46] <3CV_ini.txt>  VP2GROUND.Vdc=0 V VP1GROUND.Vdc=-6.2 V  freq=100 MHz
Flags: complex 
No. Variables: 7      
No. Points: 1       
Variables:	0	freq	frequency 
		1	S[1,1]	s-param plot=0 grid=3
		2	S[1,2]	s-param plot=0 grid=3
		3	S[2,1]	s-param plot=0 grid=3
		4	S[2,2]	s-param plot=0 grid=3
		5	PORTZ[1]	none plot=0 grid=3
		6	PORTZ[2]	none plot=0 grid=3
Values:
0	1.000000000000000e+08,0.000000000000000e+00
	9.986332504777435e-01,-5.110806737014172e-02
	4.094106954517471e-04,1.048732390965387e-02
	4.441700539355361e-04,1.137768953662361e-02
	9.995783859670411e-01,-2.689864978420135e-02
	5.000000000000000e+01,0.000000000000000e+00
	5.000000000000000e+01,0.000000000000000e+00

Plotname: SP ct2[1].ct1[1/3].S_Parameters[16/46] <3CV_ini.txt>  VP2GROUND.Vdc=0 V VP1GROUND.Vdc=-6 V  freq=100 MHz
Flags: complex 
No. Variables: 7      
No. Points: 1       
Variables:	0	freq	frequency 
		1	S[1,1]	s-param plot=0 grid=3
		2	S[1,2]	s-param plot=0 grid=3
		3	S[2,1]	s-param plot=0 grid=3
		4	S[2,2]	s-param plot=0 grid=3
		5	PORTZ[1]	none plot=0 grid=3
		6	PORTZ[2]	none plot=0 grid=3
Values:
0	1.000000000000000e+08,0.000000000000000e+00
	9.986329720587910e-01,-5.110804784586073e-02
	4.115812036194540e-04,1.053629636473425e-02
	4.444487266488631e-04,1.137767326054120e-02
	9.995767869175587e-01,-2.694765212296901e-02
	5.000000000000000e+01,0.000000000000000e+00
	5.000000000000000e+01,0.000000000000000e+00

Plotname: SP ct2[1].ct1[1/3].S_Parameters[17/46] <3CV_ini.txt>  VP2GROUND.Vdc=0 V VP1GROUND.Vdc=-5.8 V  freq=100 MHz
Flags: complex 
No. Variables: 7      
No. Points: 1       
Variables:	0	freq	frequency 
		1	S[1,1]	s-param plot=0 grid=3
		2	S[1,2]	s-param plot=0 grid=3
		3	S[2,1]	s-param plot=0 grid=3
		4	S[2,2]	s-param plot=0 grid=3
		5	PORTZ[1]	none plot=0 grid=3
		6	PORTZ[2]	none plot=0 grid=3
Values:
0	1.000000000000000e+08,0.000000000000000e+00
	9.986326936410566e-01,-5.110802830794829e-02
	4.137541106784314e-04,1.058526866731900e-02
	4.447273983019990e-04,1.137765697081182e-02
	9.995751854671764e-01,-2.699665433722929e-02
	5.000000000000000e+01,0.000000000000000e+00
	5.000000000000000e+01,0.000000000000000e+00

Plotname: SP ct2[1].ct1[1/3].S_Parameters[18/46] <3CV_ini.txt>  VP2GROUND.Vdc=0 V VP1GROUND.Vdc=-5.6 V  freq=100 MHz
Flags: complex 
No. Variables: 7      
No. Points: 1       
Variables:	0	freq	frequency 
		1	S[1,1]	s-param plot=0 grid=3
		2	S[1,2]	s-param plot=0 grid=3
		3	S[2,1]	s-param plot=0 grid=3
		4	S[2,2]	s-param plot=0 grid=3
		5	PORTZ[1]	none plot=0 grid=3
		6	PORTZ[2]	none plot=0 grid=3
Values:
0	1.000000000000000e+08,0.000000000000000e+00
	9.986324152245429e-01,-5.110800875640450e-02
	4.159294166140774e-04,1.063424081723202e-02
	4.450060688939449e-04,1.137764066743563e-02
	9.995735816159195e-01,-2.704565642680610e-02
	5.000000000000000e+01,0.000000000000000e+00
	5.000000000000000e+01,0.000000000000000e+00

Plotname: SP ct2[1].ct1[1/3].S_Parameters[19/46] <3CV_ini.txt>  VP2GROUND.Vdc=0 V VP1GROUND.Vdc=-5.4 V  freq=100 MHz
Flags: complex 
No. Variables: 7      
No. Points: 1       
Variables:	0	freq	frequency 
		1	S[1,1]	s-param plot=0 grid=3
		2	S[1,2]	s-param plot=0 grid=3
		3	S[2,1]	s-param plot=0 grid=3
		4	S[2,2]	s-param plot=0 grid=3
		5	PORTZ[1]	none plot=0 grid=3
		6	PORTZ[2]	none plot=0 grid=3
Values:
0	1.000000000000000e+08,0.000000000000000e+00
	9.986321368092510e-01,-5.110798919122947e-02
	4.181071214117687e-04,1.068321281429707e-02
	4.452847384236970e-04,1.137762435041268e-02
	9.995719753637931e-01,-2.709465839152288e-02
	5.000000000000000e+01,0.000000000000000e+00
	5.000000000000000e+01,0.000000000000000e+00

Plotname: SP ct2[1].ct1[1/3].S_Parameters[20/46] <3CV_ini.txt>  VP2GROUND.Vdc=0 V VP1GROUND.Vdc=-5.2 V  freq=100 MHz
Flags: complex 
No. Variables: 7      
No. Points: 1       
Variables:	0	freq	frequency 
		1	S[1,1]	s-param plot=0 grid=3
		2	S[1,2]	s-param plot=0 grid=3
		3	S[2,1]	s-param plot=0 grid=3
		4	S[2,2]	s-param plot=0 grid=3
		5	PORTZ[1]	none plot=0 grid=3
		6	PORTZ[2]	none plot=0 grid=3
Values:
0	1.000000000000000e+08,0.000000000000000e+00
	9.986318583951794e-01,-5.110796961242330e-02
	4.202872250568627e-04,1.073218465833789e-02
	4.455634068902505e-04,1.137760801974302e-02
	9.995703667108020e-01,-2.714366023120305e-02
	5.000000000000000e+01,0.000000000000000e+00
	5.000000000000000e+01,0.000000000000000e+00

Plotname: SP ct2[1].ct1[1/3].S_Parameters[21/46] <3CV_ini.txt>  VP2GROUND.Vdc=0 V VP1GROUND.Vdc=-5 V  freq=100 MHz
Flags: complex 
No. Variables: 7      
No. Points: 1       
Variables:	0	freq	frequency 
		1	S[1,1]	s-param plot=0 grid=3
		2	S[1,2]	s-param plot=0 grid=3
		3	S[2,1]	s-param plot=0 grid=3
		4	S[2,2]	s-param plot=0 grid=3
		5	PORTZ[1]	none plot=0 grid=3
		6	PORTZ[2]	none plot=0 grid=3
Values:
0	1.000000000000000e+08,0.000000000000000e+00
	9.986315799823329e-01,-5.110795001998612e-02
	4.224697275347059e-04,1.078115634917836e-02
	4.458420742926059e-04,1.137759167542680e-02
	9.995687556569657e-01,-2.719266194567041e-02
	5.000000000000000e+01,0.000000000000000e+00
	5.000000000000000e+01,0.000000000000000e+00

Plotname: SP ct2[1].ct1[1/3].S_Parameters[22/46] <3CV_ini.txt>  VP2GROUND.Vdc=0 V VP1GROUND.Vdc=-4.8 V  freq=100 MHz
Flags: complex 
No. Variables: 7      
No. Points: 1       
Variables:	0	freq	frequency 
		1	S[1,1]	s-param plot=0 grid=3
		2	S[1,2]	s-param plot=0 grid=3
		3	S[2,1]	s-param plot=0 grid=3
		4	S[2,2]	s-param plot=0 grid=3
		5	PORTZ[1]	none plot=0 grid=3
		6	PORTZ[2]	none plot=0 grid=3
Values:
0	1.000000000000000e+08,0.000000000000000e+00
	9.986313015707107e-01,-5.110793041391805e-02
	4.246546288306261e-04,1.083012788664230e-02
	4.461207406297632e-04,1.137757531746415e-02
	9.995671422023042e-01,-2.724166353474880e-02
	5.000000000000000e+01,0.000000000000000e+00
	5.000000000000000e+01,0.000000000000000e+00

Plotname: SP ct2[1].ct1[1/3].S_Parameters[23/46] <3CV_ini.txt>  VP2GROUND.Vdc=0 V VP1GROUND.Vdc=-4.6 V  freq=100 MHz
Flags: complex 
No. Variables: 7      
No. Points: 1       
Variables:	0	freq	frequency 
		1	S[1,1]	s-param plot=0 grid=3
		2	S[1,2]	s-param plot=0 grid=3
		3	S[2,1]	s-param plot=0 grid=3
		4	S[2,2]	s-param plot=0 grid=3
		5	PORTZ[1]	none plot=0 grid=3
		6	PORTZ[2]	none plot=0 grid=3
Values:
0	1.000000000000000e+08,0.000000000000000e+00
	9.986310231603130e-01,-5.110791079421920e-02
	4.268419289299317e-04,1.087909927055354e-02
	4.463994059007197e-04,1.137755894585516e-02
	9.995655263468304e-01,-2.729066499826176e-02
	5.000000000000000e+01,0.000000000000000e+00
	5.000000000000000e+01,0.000000000000000e+00

Plotname: SP ct2[1].ct1[1/3].S_Parameters[24/46] <3CV_ini.txt>  VP2GROUND.Vdc=0 V VP1GROUND.Vdc=-4.4 V  freq=100 MHz
Flags: complex 
No. Variables: 7      
No. Points: 1       
Variables:	0	freq	frequency 
		1	S[1,1]	s-param plot=0 grid=3
		2	S[1,2]	s-param plot=0 grid=3
		3	S[2,1]	s-param plot=0 grid=3
		4	S[2,2]	s-param plot=0 grid=3
		5	PORTZ[1]	none plot=0 grid=3
		6	PORTZ[2]	none plot=0 grid=3
Values:
0	1.000000000000000e+08,0.000000000000000e+00
	9.986307447511402e-01,-5.110789116088958e-02
	4.290316278179095e-04,1.092807050073578e-02
	4.466780701044680e-04,1.137754256059983e-02
	9.995639080905363e-01,-2.733966633603247e-02
	5.000000000000000e+01,0.000000000000000e+00
	5.000000000000000e+01,0.000000000000000e+00

Plotname: SP ct2[1].ct1[1/3].S_Parameters[25/46] <3CV_ini.txt>  VP2GROUND.Vdc=0 V VP1GROUND.Vdc=-4.2 V  freq=100 MHz
Flags: complex 
No. Variables: 7      
No. Points: 1       
Variables:	0	freq	frequency 
		1	S[1,1]	s-param plot=0 grid=3
		2	S[1,2]	s-param plot=0 grid=3
		3	S[2,1]	s-param plot=0 grid=3
		4	S[2,2]	s-param plot=0 grid=3
		5	PORTZ[1]	none plot=0 grid=3
		6	PORTZ[2]	none plot=0 grid=3
Values:
0	1.000000000000000e+08,0.000000000000000e+00
	9.986304663431960e-01,-5.110787151392954e-02
	4.312237254798392e-04,1.097704157701294e-02
	4.469567332400108e-04,1.137752616169833e-02
	9.995622874334433e-01,-2.738866754788478e-02
	5.000000000000000e+01,0.000000000000000e+00
	5.000000000000000e+01,0.000000000000000e+00

Plotname: SP ct2[1].ct1[1/3].S_Parameters[26/46] <3CV_ini.txt>  VP2GROUND.Vdc=0 V VP1GROUND.Vdc=-4 V  freq=100 MHz
Flags: complex 
No. Variables: 7      
No. Points: 1       
Variables:	0	freq	frequency 
		1	S[1,1]	s-param plot=0 grid=3
		2	S[1,2]	s-param plot=0 grid=3
		3	S[2,1]	s-param plot=0 grid=3
		4	S[2,2]	s-param plot=0 grid=3
		5	PORTZ[1]	none plot=0 grid=3
		6	PORTZ[2]	none plot=0 grid=3
Values:
0	1.000000000000000e+08,0.000000000000000e+00
	9.986301879364781e-01,-5.110785185340350e-02
	4.334182218975813e-04,1.102601249914511e-02
	4.472353953026941e-04,1.137750974908125e-02
	9.995606643576820e-01,-2.743766863317384e-02
	5.000000000000000e+01,0.000000000000000e+00
	5.000000000000000e+01,0.000000000000000e+00

Plotname: SP ct2[1].ct1[1/3].S_Parameters[27/46] <3CV_ini.txt>  VP2GROUND.Vdc=0 V VP1GROUND.Vdc=-3.8 V  freq=100 MHz
Flags: complex 
No. Variables: 7      
No. Points: 1       
Variables:	0	freq	frequency 
		1	S[1,1]	s-param plot=0 grid=3
		2	S[1,2]	s-param plot=0 grid=3
		3	S[2,1]	s-param plot=0 grid=3
		4	S[2,2]	s-param plot=0 grid=3
		5	PORTZ[1]	none plot=0 grid=3
		6	PORTZ[2]	none plot=0 grid=3
Values:
0	1.000000000000000e+08,0.000000000000000e+00
	9.986299095309281e-01,-5.110783218049540e-02
	4.356151169814548e-04,1.107498326553866e-02
	4.475140562142086e-04,1.137749332128330e-02
	9.995590385015931e-01,-2.748666958216852e-02
	5.000000000000000e+01,0.000000000000000e+00
	5.000000000000000e+01,0.000000000000000e+00

Plotname: SP ct2[1].ct1[1/3].S_Parameters[28/46] <3CV_ini.txt>  VP2GROUND.Vdc=0 V VP1GROUND.Vdc=-3.6 V  freq=100 MHz
Flags: complex 
No. Variables: 7      
No. Points: 1       
Variables:	0	freq	frequency 
		1	S[1,1]	s-param plot=0 grid=3
		2	S[1,2]	s-param plot=0 grid=3
		3	S[2,1]	s-param plot=0 grid=3
		4	S[2,2]	s-param plot=0 grid=3
		5	PORTZ[1]	none plot=0 grid=3
		6	PORTZ[2]	none plot=0 grid=3
Values:
0	1.000000000000000e+08,0.000000000000000e+00
	9.986296311253553e-01,-5.110781252053496e-02
	4.378144091290778e-04,1.112395384602327e-02
	4.477927143422668e-04,1.137747684736453e-02
	9.995574021996025e-01,-2.753567019192308e-02
	5.000000000000000e+01,0.000000000000000e+00
	5.000000000000000e+01,0.000000000000000e+00

Plotname: SP ct2[1].ct1[1/3].S_Parameters[29/46] <3CV_ini.txt>  VP2GROUND.Vdc=0 V VP1GROUND.Vdc=-3.4 V  freq=100 MHz
Flags: complex 
No. Variables: 7      
No. Points: 1       
Variables:	0	freq	frequency 
		1	S[1,1]	s-param plot=0 grid=3
		2	S[1,2]	s-param plot=0 grid=3
		3	S[2,1]	s-param plot=0 grid=3
		4	S[2,2]	s-param plot=0 grid=3
		5	PORTZ[1]	none plot=0 grid=3
		6	PORTZ[2]	none plot=0 grid=3
Values:
0	1.000000000000000e+08,0.000000000000000e+00
	9.986293526965213e-01,-5.110779336599735e-02
	4.400160672326334e-04,1.117292365335521e-02
	4.480713378739595e-04,1.137745972561105e-02
	9.995556063840980e-01,-2.758466651168194e-02
	5.000000000000000e+01,0.000000000000000e+00
	5.000000000000000e+01,0.000000000000000e+00

Plotname: SP ct2[1].ct1[1/3].S_Parameters[30/46] <3CV_ini.txt>  VP2GROUND.Vdc=0 V VP1GROUND.Vdc=-3.2 V  freq=100 MHz
Flags: complex 
No. Variables: 7      
No. Points: 1       
Variables:	0	freq	frequency 
		1	S[1,1]	s-param plot=0 grid=3
		2	S[1,2]	s-param plot=0 grid=3
		3	S[2,1]	s-param plot=0 grid=3
		4	S[2,2]	s-param plot=0 grid=3
		5	PORTZ[1]	none plot=0 grid=3
		6	PORTZ[2]	none plot=0 grid=3
Values:
0	1.000000000000000e+08,0.000000000000000e+00
	9.986290740113446e-01,-5.110777966050997e-02
	4.422197767000165e-04,1.122188675213482e-02
	4.483496072095468e-04,1.137743591600083e-02
	9.995521546984978e-01,-2.763361880034305e-02
	5.000000000000000e+01,0.000000000000000e+00
	5.000000000000000e+01,0.000000000000000e+00

Plotname: SP ct2[1].ct1[1/3].S_Parameters[31/46] <3CV_ini.txt>  VP2GROUND.Vdc=0 V VP1GROUND.Vdc=-3 V  freq=100 MHz
Flags: complex 
No. Variables: 7      
No. Points: 1       
Variables:	0	freq	frequency 
		1	S[1,1]	s-param plot=0 grid=3
		2	S[1,2]	s-param plot=0 grid=3
		3	S[2,1]	s-param plot=0 grid=3
		4	S[2,2]	s-param plot=0 grid=3
		5	PORTZ[1]	none plot=0 grid=3
		6	PORTZ[2]	none plot=0 grid=3
Values:
0	1.000000000000000e+08,0.000000000000000e+00
	9.986287894848391e-01,-5.110788992075246e-02
	4.444179539599235e-04,1.127070013495962e-02
	4.486198531861223e-04,1.137726062218402e-02
	9.995111751413792e-01,-2.768157291409305e-02
	5.000000000000000e+01,0.000000000000000e+00
	5.000000000000000e+01,0.000000000000000e+00

Plotname: SP ct2[1].ct1[1/3].S_Parameters[32/46] <3CV_ini.txt>  VP2GROUND.Vdc=0 V VP1GROUND.Vdc=-2.8 V  freq=100 MHz
Flags: complex 
No. Variables: 7      
No. Points: 1       
Variables:	0	freq	frequency 
		1	S[1,1]	s-param plot=0 grid=3
		2	S[1,2]	s-param plot=0 grid=3
		3	S[2,1]	s-param plot=0 grid=3
		4	S[2,2]	s-param plot=0 grid=3
		5	PORTZ[1]	none plot=0 grid=3
		6	PORTZ[2]	none plot=0 grid=3
Values:
0	1.000000000000000e+08,0.000000000000000e+00
	9.986283806129646e-01,-5.111064028449314e-02
	4.464485925453118e-04,1.131631032999557e-02
	4.487191713491043e-04,1.137386122769623e-02
	9.986714592754804e-01,-2.770824873210926e-02
	5.000000000000000e+01,0.000000000000000e+00
	5.000000000000000e+01,0.000000000000000e+00

Plotname: SP ct2[1].ct1[1/3].S_Parameters[33/46] <3CV_ini.txt>  VP2GROUND.Vdc=0 V VP1GROUND.Vdc=-2.6 V  freq=100 MHz
Flags: complex 
No. Variables: 7      
No. Points: 1       
Variables:	0	freq	frequency 
		1	S[1,1]	s-param plot=0 grid=3
		2	S[1,2]	s-param plot=0 grid=3
		3	S[2,1]	s-param plot=0 grid=3
		4	S[2,2]	s-param plot=0 grid=3
		5	PORTZ[1]	none plot=0 grid=3
		6	PORTZ[2]	none plot=0 grid=3
Values:
0	1.000000000000000e+08,0.000000000000000e+00
	9.986253637975133e-01,-5.116870867654669e-02
	4.449384820362708e-04,1.129501016182033e-02
	4.452747045171032e-04,1.130352168896880e-02
	9.812514149397453e-01,-2.729442051271403e-02
	5.000000000000000e+01,0.000000000000000e+00
	5.000000000000000e+01,0.000000000000000e+00

Plotname: SP ct2[1].ct1[1/3].S_Parameters[34/46] <3CV_ini.txt>  VP2GROUND.Vdc=0 V VP1GROUND.Vdc=-2.4 V  freq=100 MHz
Flags: complex 
No. Variables: 7      
No. Points: 1       
Variables:	0	freq	frequency 
		1	S[1,1]	s-param plot=0 grid=3
		2	S[1,2]	s-param plot=0 grid=3
		3	S[2,1]	s-param plot=0 grid=3
		4	S[2,2]	s-param plot=0 grid=3
		5	PORTZ[1]	none plot=0 grid=3
		6	PORTZ[2]	none plot=0 grid=3
Values:
0	1.000000000000000e+08,0.000000000000000e+00
	9.985731636832960e-01,-5.224268761129393e-02
	3.898645520900700e-04,1.021806255209589e-02
	3.885626392674804e-04,1.018362094775038e-02
	7.049554440336079e-01,-2.050293659910792e-02
	5.000000000000000e+01,0.000000000000000e+00
	5.000000000000000e+01,0.000000000000000e+00

Plotname: SP ct2[1].ct1[1/3].S_Parameters[35/46] <3CV_ini.txt>  VP2GROUND.Vdc=0 V VP1GROUND.Vdc=-2.2 V  freq=100 MHz
Flags: complex 
No. Variables: 7      
No. Points: 1       
Variables:	0	freq	frequency 
		1	S[1,1]	s-param plot=0 grid=3
		2	S[1,2]	s-param plot=0 grid=3
		3	S[2,1]	s-param plot=0 grid=3
		4	S[2,2]	s-param plot=0 grid=3
		5	PORTZ[1]	none plot=0 grid=3
		6	PORTZ[2]	none plot=0 grid=3
Values:
0	1.000000000000000e+08,0.000000000000000e+00
	9.980620264527034e-01,-6.140315604163955e-02
	2.225727082053775e-04,6.131409421965916e-03
	2.213874945497839e-04,6.098058582404298e-03
	-2.535566966546431e-01,-4.282021848224798e-03
	5.000000000000000e+01,0.000000000000000e+00
	5.000000000000000e+01,0.000000000000000e+00

Plotname: SP ct2[1].ct1[1/3].S_Parameters[36/46] <3CV_ini.txt>  VP2GROUND.Vdc=0 V VP1GROUND.Vdc=-2 V  freq=100 MHz
Flags: complex 
No. Variables: 7      
No. Points: 1       
Variables:	0	freq	frequency 
		1	S[1,1]	s-param plot=0 grid=3
		2	S[1,2]	s-param plot=0 grid=3
		3	S[2,1]	s-param plot=0 grid=3
		4	S[2,2]	s-param plot=0 grid=3
		5	PORTZ[1]	none plot=0 grid=3
		6	PORTZ[2]	none plot=0 grid=3
Values:
0	1.000000000000000e+08,0.000000000000000e+00
	9.969752628618662e-01,-7.710166597404372e-02
	1.546656990950788e-04,3.789341347456940e-03
	1.537409038665140e-04,3.766609266210296e-03
	-6.711278375541261e-01,-8.634246248626965e-04
	5.000000000000000e+01,0.000000000000000e+00
	5.000000000000000e+01,0.000000000000000e+00

Plotname: SP ct2[1].ct1[1/3].S_Parameters[37/46] <3CV_ini.txt>  VP2GROUND.Vdc=0 V VP1GROUND.Vdc=-1.8 V  freq=100 MHz
Flags: complex 
No. Variables: 7      
No. Points: 1       
Variables:	0	freq	frequency 
		1	S[1,1]	s-param plot=0 grid=3
		2	S[1,2]	s-param plot=0 grid=3
		3	S[2,1]	s-param plot=0 grid=3
		4	S[2,2]	s-param plot=0 grid=3
		5	PORTZ[1]	none plot=0 grid=3
		6	PORTZ[2]	none plot=0 grid=3
Values:
0	1.000000000000000e+08,0.000000000000000e+00
	9.961607695985102e-01,-8.701077539712411e-02
	1.308378400843112e-04,2.935316041170300e-03
	1.298943546771634e-04,2.914450508806512e-03
	-7.769692895404180e-01,-3.659713506815157e-04
	5.000000000000000e+01,0.000000000000000e+00
	5.000000000000000e+01,0.000000000000000e+00

Plotname: SP ct2[1].ct1[1/3].S_Parameters[38/46] <3CV_ini.txt>  VP2GROUND.Vdc=0 V VP1GROUND.Vdc=-1.6 V  freq=100 MHz
Flags: complex 
No. Variables: 7      
No. Points: 1       
Variables:	0	freq	frequency 
		1	S[1,1]	s-param plot=0 grid=3
		2	S[1,2]	s-param plot=0 grid=3
		3	S[2,1]	s-param plot=0 grid=3
		4	S[2,2]	s-param plot=0 grid=3
		5	PORTZ[1]	none plot=0 grid=3
		6	PORTZ[2]	none plot=0 grid=3
Values:
0	1.000000000000000e+08,0.000000000000000e+00
	9.956756609734243e-01,-9.240185482737227e-02
	1.205876838619173e-04,2.581183513861448e-03
	1.195385507013964e-04,2.559239364659825e-03
	-8.140148538992282e-01,-2.308841737368850e-04
	5.000000000000000e+01,0.000000000000000e+00
	5.000000000000000e+01,0.000000000000000e+00

Plotname: SP ct2[1].ct1[1/3].S_Parameters[39/46] <3CV_ini.txt>  VP2GROUND.Vdc=0 V VP1GROUND.Vdc=-1.4 V  freq=100 MHz
Flags: complex 
No. Variables: 7      
No. Points: 1       
Variables:	0	freq	frequency 
		1	S[1,1]	s-param plot=0 grid=3
		2	S[1,2]	s-param plot=0 grid=3
		3	S[2,1]	s-param plot=0 grid=3
		4	S[2,2]	s-param plot=0 grid=3
		5	PORTZ[1]	none plot=0 grid=3
		6	PORTZ[2]	none plot=0 grid=3
Values:
0	1.000000000000000e+08,0.000000000000000e+00
	9.953739777317978e-01,-9.559751757079540e-02
	1.155251448475944e-04,2.406036669627994e-03
	1.143386434649935e-04,2.381995055162617e-03
	-8.311969316628075e-01,-1.756751930830194e-04
	5.000000000000000e+01,0.000000000000000e+00
	5.000000000000000e+01,0.000000000000000e+00

Plotname: SP ct2[1].ct1[1/3].S_Parameters[40/46] <3CV_ini.txt>  VP2GROUND.Vdc=0 V VP1GROUND.Vdc=-1.2 V  freq=100 MHz
Flags: complex 
No. Variables: 7      
No. Points: 1       
Variables:	0	freq	frequency 
		1	S[1,1]	s-param plot=0 grid=3
		2	S[1,2]	s-param plot=0 grid=3
		3	S[2,1]	s-param plot=0 grid=3
		4	S[2,2]	s-param plot=0 grid=3
		5	PORTZ[1]	none plot=0 grid=3
		6	PORTZ[2]	none plot=0 grid=3
Values:
0	1.000000000000000e+08,0.000000000000000e+00
	9.951740069996147e-01,-9.765636422820421e-02
	1.127110946638973e-04,2.306794547229885e-03
	1.113730388165723e-04,2.280216339779815e-03
	-8.407156995280636e-01,-1.472571967541421e-04
	5.000000000000000e+01,0.000000000000000e+00
	5.000000000000000e+01,0.000000000000000e+00

Plotname: SP ct2[1].ct1[1/3].S_Parameters[41/46] <3CV_ini.txt>  VP2GROUND.Vdc=0 V VP1GROUND.Vdc=-1 V  freq=100 MHz
Flags: complex 
No. Variables: 7      
No. Points: 1       
Variables:	0	freq	frequency 
		1	S[1,1]	s-param plot=0 grid=3
		2	S[1,2]	s-param plot=0 grid=3
		3	S[2,1]	s-param plot=0 grid=3
		4	S[2,2]	s-param plot=0 grid=3
		5	PORTZ[1]	none plot=0 grid=3
		6	PORTZ[2]	none plot=0 grid=3
Values:
0	1.000000000000000e+08,0.000000000000000e+00
	9.950340838014491e-01,-9.907063909263150e-02
	1.110035879242329e-04,2.244915390317391e-03
	1.095066439217622e-04,2.215577545346782e-03
	-8.466371366106711e-01,-1.304186415406298e-04
	5.000000000000000e+01,0.000000000000000e+00
	5.000000000000000e+01,0.000000000000000e+00
